# vtk DataFile Version 3.0
vtk output
ASCII
DATASET UNSTRUCTURED_GRID
POINTS 36 float
35.6383 0.499978 -22.2562 34.992 2.68421 20.96 60.4206 -5.15423 19.8394 
60.297 -6.99198 -19.4837 38.8447 27.7646 -22.0108 38.9199 29.395 20.9877 
70.2256 23.5245 22.1516 69.3747 22.324 -21.2581 34.1615 1.19639 0.417191 
64.1068 -7.81252 -0.0370844 74.0456 23.4042 -1.47385 36.007 29.9842 -0.446377 
48.4738 -4.00334 -24.6277 54.4973 25.7165 -26.4877 54.9649 27.6247 -1.52271 
48.7389 -4.73268 -0.143473 53.8287 26.0827 24.754 49.3371 -2.85128 24.3374 
39.7847 23.6409 -22.5171 37.1281 24.2214 -0.277573 53.7467 20.9636 -0.893514 
53.4049 20.7155 -25.7371 39.6036 24.5213 21.5284 53.5487 21.0964 24.5388 
71.1416 18.706 -1.10057 66.8931 18.575 -20.8701 67.2429 19.0427 21.7474 
36.5165 5.95076 -22.2446 34.1609 6.88015 0.176369 50.3992 1.17254 -0.466043 
49.5966 0.830836 -24.9843 36.1315 6.38073 21.0874 50.1864 1.64854 24.6429 
65.898 -3.71948 -0.100168 61.6237 -3.09894 -19.5536 61.782 -2.42756 20.5554 

CELLS 12 108
8 0 8 15 12 27 28 29 30 
8 8 1 17 15 28 31 32 29 
8 12 15 9 3 30 29 33 34 
8 15 17 2 9 29 32 35 33 
8 18 19 20 21 4 11 14 13 
8 19 22 23 20 11 5 16 14 
8 21 20 24 25 13 14 10 7 
8 20 23 26 24 14 16 6 10 
8 27 28 29 30 18 19 20 21 
8 28 31 32 29 19 22 23 20 
8 30 29 33 34 21 20 24 25 
8 29 32 35 33 20 23 26 24 

CELL_TYPES 12
12
12
12
12
12
12
12
12
12
12
12
12

CELL_DATA 12
FIELD FieldData 1
Mesh_Seed 3 12 int
11 7 15 11 7 16 11 7 15 
11 7 16 11 7 15 11 7 16 
11 7 15 11 7 16 11 11 15 
11 11 16 11 11 15 11 11 16 

